<?xml version="1.0"?>
<VTKFile type="UnstructuredGrid"  version="0.1"  >
<UnstructuredGrid>
<Piece  NumberOfPoints="25" NumberOfCells="32">
<Points>
<DataArray  type="Float64"  NumberOfComponents="3"  format="ascii">0 0 0  10 0 0  10 10 0  0 10 0  2.499999999995362 0 0  4.999999999992398 0 0  7.499999999996199 0 0  10 2.499999999995362 0  10 4.999999999992398 0  10 7.499999999996199 0  7.5 10 0  5 10 0  2.5 10 0  0 7.5 0  0 5 0  0 2.5 0  7.499999999992816 2.500000000000418 0  2.781669690924585 4.567383976639547 0  7.499999999998099 7.499999999998099 0  4.125559587897934 2.339845302186767 0  2.5 7.5 0  1.971687836487032 1.971687836487032 0  5.191206323699163 4.974282819602651 0  7.500000000002964 4.999999999997454 0  4.999999999998099 7.5 0  </DataArray>
</Points>
<Cells>
<DataArray  type="UInt32"  Name="connectivity"  format="ascii">17 19 21  15 17 21  4 19 21  1 6 7  7 16 23  16 22 23  6 7 16  18 22 23  17 22 24  18 22 24  17 19 22  7 8 23  5 6 16  5 16 19  8 9 23  16 19 22  2 9 18  0 15 21  2 10 18  10 11 18  11 18 24  9 18 23  14 17 20  4 5 19  17 20 24  14 15 17  3 12 20  3 13 20  13 14 20  12 20 24  11 12 24  0 4 21  </DataArray>
<DataArray  type="UInt32"  Name="offsets"  format="ascii">3 6 9 12 15 18 21 24 27 30 33 36 39 42 45 48 51 54 57 60 63 66 69 72 75 78 81 84 87 90 93 96 </DataArray>
<DataArray  type="UInt8"  Name="types"  format="ascii">5 5 5 5 5 5 5 5 5 5 5 5 5 5 5 5 5 5 5 5 5 5 5 5 5 5 5 5 5 5 5 5 </DataArray>
</Cells>
<PointData  Vectors="f_16"> 
<DataArray  type="Float64"  Name="f_16"  NumberOfComponents="3" format="ascii">0.0000000000000000e+00 0.0000000000000000e+00 0.0000000000000000e+00  0.0000000000000000e+00 0.0000000000000000e+00 0.0000000000000000e+00  0.0000000000000000e+00 1.0000000000000000e+00 0.0000000000000000e+00  0.0000000000000000e+00 1.0000000000000000e+00 0.0000000000000000e+00  0.0000000000000000e+00 0.0000000000000000e+00 0.0000000000000000e+00  0.0000000000000000e+00 0.0000000000000000e+00 0.0000000000000000e+00  0.0000000000000000e+00 0.0000000000000000e+00 0.0000000000000000e+00  -1.4716136191134610e-01 2.4095316835521968e-01 0.0000000000000000e+00  -1.7303556963757150e-01 4.9017120613217124e-01 0.0000000000000000e+00  -1.5021168422510331e-01 7.3091101726986418e-01 0.0000000000000000e+00  0.0000000000000000e+00 1.0000000000000000e+00 0.0000000000000000e+00  0.0000000000000000e+00 9.9999999999999989e-01 0.0000000000000000e+00  0.0000000000000000e+00 1.0000000000000000e+00 0.0000000000000000e+00  1.4722064925332437e-01 7.3192082527600466e-01 0.0000000000000000e+00  1.8253859622410126e-01 5.0084513453167667e-01 0.0000000000000000e+00  1.5659099788771041e-01 2.6502150402155988e-01 0.0000000000000000e+00  -6.7316168522082331e-02 2.3857695076618213e-01 0.0000000000000000e+00  8.0318949929289618e-02 4.5542074419874984e-01 0.0000000000000000e+00  -6.1063289367235679e-02 7.7408136242695469e-01 0.0000000000000000e+00  1.8859806279049214e-02 2.2087480439551793e-01 0.0000000000000000e+00  6.8445129322115647e-02 7.6305946192109553e-01 0.0000000000000000e+00  6.5930499270266424e-02 1.8452824237931306e-01 0.0000000000000000e+00  -3.7440148285691542e-03 4.9857116236890769e-01 0.0000000000000000e+00  -8.6304920713890024e-02 5.0242316326551417e-01 0.0000000000000000e+00  2.5467915457274290e-03 7.6624077285775405e-01 0.0000000000000000e+00  </DataArray> 
</PointData> 
</Piece>
</UnstructuredGrid>
</VTKFile>