<?xml version="1.0"?>
<VTKFile type="UnstructuredGrid"  version="0.1"  >
<UnstructuredGrid>
<Piece  NumberOfPoints="105" NumberOfCells="160">
<Points>
<DataArray  type="Float64"  NumberOfComponents="3"  format="ascii">0 0 0  10 0 0  10 50 0  0 50 0  2.499999999995362 0 0  4.999999999992398 0 0  7.499999999996199 0 0  10 2.499999999989877 0  10 4.99999999998079 0  10 7.499999999970039 0  10 9.999999999957065 0  10 12.49999999994409 0  10 14.99999999993112 0  10 17.49999999992411 0  10 19.99999999992002 0  10 22.49999999991594 0  10 24.99999999991184 0  10 27.49999999990775 0  10 29.99999999990366 0  10 32.4999999999043 0  10 34.99999999991796 0  10 37.49999999993164 0  10 39.99999999994531 0  10 42.49999999995898 0  10 44.99999999997265 0  10 47.49999999998633 0  7.5 50 0  5 50 0  2.5 50 0  0 47.50000000001776 0  0 45.00000000003553 0  0 42.50000000005329 0  0 40.00000000007105 0  0 37.50000000008882 0  0 35.00000000010658 0  0 32.50000000012434 0  0 30.00000000012907 0  0 27.50000000012907 0  0 25.00000000012907 0  0 22.50000000012907 0  0 20.00000000012907 0  0 17.50000000012435 0  0 15.00000000010658 0  0 12.50000000008882 0  0 10.00000000007105 0  0 7.500000000053291 0  0 5.000000000035527 0  0 2.500000000017764 0  2.499999999982236 35.00000000010658 0  2.499999999982236 42.50000000005329 0  2.499999999997639 30.00000000012671 0  7.500000000004093 22.49999999991594 0  7.500000000012971 12.49999999994409 0  7.500000000011863 4.999999999981902 0  7.500000000004089 27.49999999990776 0  7.499999999992852 32.49999999991081 0  2.5 27.50000000012907 0  2.499999999999997 22.50000000012907 0  7.499999999986333 34.99999999991797 0  7.499999999986329 39.99999999994531 0  2.499999999982236 40.00000000007105 0  7.499999999986329 42.49999999995898 0  2.500000000007127 17.50000000011767 0  7.500000000005548 17.49999999992557 0  2.50000000001776 12.50000000008881 0  2.500000000017764 7.500000000053291 0  7.500000000012974 7.499999999970039 0  2.781669690934465 4.567383976653695 0  2.5 47.5 0  7.499999999986329 44.99999999997266 0  4.799807399954771 2.247745758973802 0  5 47.5 0  7.499999999993165 47.49999999999316 0  7.50000000000316 2.499999999996839 0  2.003550394840955 1.894072201235335 0  2.500000000008882 10.00000000007993 0  7.499999999993165 37.4999999999248 0  2.500000000008879 15.00000000010894 0  4.999999999988333 32.50000000004947 0  4.999999999972331 42.50000000006115 0  4.999999999996612 30.00000000006417 0  2.499999999999485 20.00000000012959 0  7.500000000004084 29.99999999990367 0  2.499999999999321 25.00000000012975 0  2.499999999987595 32.50000000011485 0  7.500000000003581 24.99999999991235 0  7.500000000004083 19.99999999992149 0  7.500000000008375 14.9999999999351 0  5.046944948499682 7.427897329434801 0  7.507824158089321 9.987982888204392 0  2.499999999986166 37.50000000008489 0  5.222495055864212 4.967158955683296 0  2.499999999989468 45.00000000001053 0  4.999999999986329 45 0  4.999999999986308 35.00000000003244 0  4.999999999972331 40.00000000007498 0  5.000000000007915 27.49999999990853 0  5.000000000002172 22.5000000000196 0  5.000000000001386 20.00000000008837 0  5.000000000018222 12.49999999995574 0  5.000000000013031 14.99999999995391 0  5.000000000010303 9.999999999976275 0  5.000000000006392 24.99999999991287 0  5.000000000006676 17.50000000001932 0  4.999999999984422 37.50000000002817 0  </DataArray>
</Points>
<Cells>
<DataArray  type="UInt32"  Name="connectivity"  format="ascii">67 70 74  47 67 74  4 70 74  3 28 29  1 6 7  2 25 26  80 82 96  56 80 96  63 100 103  77 100 103  78 84 94  58 78 94  67 70 91  65 75 101  58 76 94  76 94 104  45 65 75  59 76 104  69 72 93  64 77 100  65 67 88  21 59 76  25 69 72  44 45 75  43 64 77  59 61 95  59 95 104  61 79 95  61 69 79  69 79 93  0 47 74  29 30 68  55 80 82  50 78 84  46 65 67  43 64 75  62 81 98  70 73 91  83 96 102  56 83 96  6 70 73  41 42 62  41 62 81  19 20 55  64 75 99  75 99 101  57 97 102  30 68 92  23 61 69  23 59 61  25 26 72  20 55 58  20 58 76  81 97 98  62 77 103  57 81 97  19 55 82  57 83 102  42 43 77  55 58 78  51 86 98  28 29 68  51 97 98  26 71 72  71 72 93  86 98 103  43 44 75  45 46 65  46 47 67  6 7 73  42 62 77  52 89 101  48 90 104  35 36 84  20 21 76  23 24 69  24 25 69  21 22 59  22 23 59  5 6 70  55 78 80  40 41 81  30 31 92  68 92 93  36 50 84  36 37 50  18 19 82  52 99 101  48 94 104  37 50 56  53 66 91  50 78 80  38 57 83  7 53 73  10 11 89  12 13 87  27 28 68  50 56 80  13 14 63  31 49 92  37 56 83  68 71 93  27 68 71  64 99 100  37 38 83  38 39 57  16 54 85  62 98 103  39 57 81  7 8 53  85 96 102  16 17 54  26 27 71  39 40 81  16 51 85  17 18 54  85 97 102  79 92 93  14 15 86  14 63 86  66 88 91  13 63 87  15 16 51  18 54 82  54 85 96  65 88 101  67 88 91  51 85 97  4 5 70  15 51 86  54 82 96  53 73 91  8 9 66  63 86 103  11 52 89  88 89 101  10 66 89  33 48 90  33 60 90  90 95 104  12 52 87  0 4 74  63 87 100  66 88 89  35 48 84  11 12 52  9 10 66  33 34 48  34 35 48  31 32 49  32 33 60  60 90 95  49 60 95  52 87 99  48 84 94  49 79 92  87 99 100  8 53 66  32 49 60  49 79 95  </DataArray>
<DataArray  type="UInt32"  Name="offsets"  format="ascii">3 6 9 12 15 18 21 24 27 30 33 36 39 42 45 48 51 54 57 60 63 66 69 72 75 78 81 84 87 90 93 96 99 102 105 108 111 114 117 120 123 126 129 132 135 138 141 144 147 150 153 156 159 162 165 168 171 174 177 180 183 186 189 192 195 198 201 204 207 210 213 216 219 222 225 228 231 234 237 240 243 246 249 252 255 258 261 264 267 270 273 276 279 282 285 288 291 294 297 300 303 306 309 312 315 318 321 324 327 330 333 336 339 342 345 348 351 354 357 360 363 366 369 372 375 378 381 384 387 390 393 396 399 402 405 408 411 414 417 420 423 426 429 432 435 438 441 444 447 450 453 456 459 462 465 468 471 474 477 480 </DataArray>
<DataArray  type="UInt8"  Name="types"  format="ascii">5 5 5 5 5 5 5 5 5 5 5 5 5 5 5 5 5 5 5 5 5 5 5 5 5 5 5 5 5 5 5 5 5 5 5 5 5 5 5 5 5 5 5 5 5 5 5 5 5 5 5 5 5 5 5 5 5 5 5 5 5 5 5 5 5 5 5 5 5 5 5 5 5 5 5 5 5 5 5 5 5 5 5 5 5 5 5 5 5 5 5 5 5 5 5 5 5 5 5 5 5 5 5 5 5 5 5 5 5 5 5 5 5 5 5 5 5 5 5 5 5 5 5 5 5 5 5 5 5 5 5 5 5 5 5 5 5 5 5 5 5 5 5 5 5 5 5 5 5 5 5 5 5 5 5 5 5 5 5 5 </DataArray>
</Cells>
<CellData  Tensors="f_36"> 
<DataArray  type="Float64"  Name="f_36"  NumberOfComponents="9" format="ascii">1.0455906004807874e-02 1.9992849099577615e-03 0.0000000000000000e+00 1.9992849099577615e-03 5.8219682115682528e-02 0.0000000000000000e+00 0.0000000000000000e+00 0.0000000000000000e+00 0.0000000000000000e+00  -1.2892354585397961e-04 8.4247672128807364e-04 0.0000000000000000e+00 8.4247672128807364e-04 5.5902274155879589e-02 0.0000000000000000e+00 0.0000000000000000e+00 0.0000000000000000e+00 0.0000000000000000e+00  7.1555701638222448e-03 4.2283635026736611e-03 0.0000000000000000e+00 4.2283635026736611e-03 5.1439537544020475e-02 0.0000000000000000e+00 0.0000000000000000e+00 0.0000000000000000e+00 0.0000000000000000e+00  2.3801200444889887e-02 -1.0793066144028463e-02 0.0000000000000000e+00 -1.0793066144028463e-02 6.1883121156713711e-02 0.0000000000000000e+00 0.0000000000000000e+00 0.0000000000000000e+00 0.0000000000000000e+00  2.3755870856587147e-02 -1.1039786557359304e-02 0.0000000000000000e+00 -1.1039786557359304e-02 6.1765264227126589e-02 0.0000000000000000e+00 0.0000000000000000e+00 0.0000000000000000e+00 0.0000000000000000e+00  2.4022831201718085e-02 1.0928950204764708e-02 0.0000000000000000e+00 1.0928950204764708e-02 6.2459361124467011e-02 0.0000000000000000e+00 0.0000000000000000e+00 0.0000000000000000e+00 0.0000000000000000e+00  5.8995134384048215e-06 -6.9812142749024747e-05 0.0000000000000000e+00 -6.9812142749024747e-05 5.6100754259021113e-02 0.0000000000000000e+00 0.0000000000000000e+00 0.0000000000000000e+00 0.0000000000000000e+00  -1.0418044501851742e-05 -4.3613492633279138e-05 0.0000000000000000e+00 -4.3613492633279138e-05 5.6094478275198270e-02 0.0000000000000000e+00 0.0000000000000000e+00 0.0000000000000000e+00 0.0000000000000000e+00  -4.4598600929823123e-05 -2.4412567927808649e-05 0.0000000000000000e+00 -2.4412567927808649e-05 5.6160123021760863e-02 0.0000000000000000e+00 0.0000000000000000e+00 0.0000000000000000e+00 0.0000000000000000e+00  -8.1310585877070185e-05 -1.0865014849857352e-04 0.0000000000000000e+00 -1.0865014849857352e-04 5.6146003027549803e-02 0.0000000000000000e+00 0.0000000000000000e+00 0.0000000000000000e+00 0.0000000000000000e+00  -4.0599819000184188e-05 -1.5579437652060284e-05 0.0000000000000000e+00 -1.5579437652060284e-05 5.6175372202963390e-02 0.0000000000000000e+00 0.0000000000000000e+00 0.0000000000000000e+00 0.0000000000000000e+00  -1.9486541292258394e-05 -1.2473549034434941e-04 0.0000000000000000e+00 -1.2473549034434941e-04 5.6183492694389291e-02 0.0000000000000000e+00 0.0000000000000000e+00 0.0000000000000000e+00 0.0000000000000000e+00  1.5477220120931822e-03 9.9190246008275265e-05 0.0000000000000000e+00 9.9190246008275265e-05 5.6440574450420757e-02 0.0000000000000000e+00 0.0000000000000000e+00 0.0000000000000000e+00 0.0000000000000000e+00  -3.9648469492767005e-04 -1.0065207147945495e-04 0.0000000000000000e+00 -1.0065207147945495e-04 5.6034472415598120e-02 0.0000000000000000e+00 0.0000000000000000e+00 0.0000000000000000e+00 0.0000000000000000e+00  -1.0869727829423102e-04 -1.1247367439667753e-04 0.0000000000000000e+00 -1.1247367439667753e-04 5.5951544778180110e-02 0.0000000000000000e+00 0.0000000000000000e+00 0.0000000000000000e+00 0.0000000000000000e+00  -1.4456810553929028e-05 -2.1461305689642930e-04 0.0000000000000000e+00 -2.1461305689642930e-04 5.6316931531716664e-02 0.0000000000000000e+00 0.0000000000000000e+00 0.0000000000000000e+00 0.0000000000000000e+00  6.5636069624076994e-04 -9.4890022664357134e-04 0.0000000000000000e+00 -9.4890022664357134e-04 5.6439412950654556e-02 0.0000000000000000e+00 0.0000000000000000e+00 0.0000000000000000e+00 0.0000000000000000e+00  -1.8239109700643463e-04 -1.6728460889761776e-04 0.0000000000000000e+00 -1.6728460889761776e-04 5.5880302386926060e-02 0.0000000000000000e+00 0.0000000000000000e+00 0.0000000000000000e+00 0.0000000000000000e+00  1.7716010366231241e-03 1.1978354274333265e-03 0.0000000000000000e+00 1.1978354274333265e-03 5.4432648081054760e-02 0.0000000000000000e+00 0.0000000000000000e+00 0.0000000000000000e+00 0.0000000000000000e+00  -1.3020336263282195e-04 -9.7152657957392461e-05 0.0000000000000000e+00 -9.7152657957392461e-05 5.6018881807979710e-02 0.0000000000000000e+00 0.0000000000000000e+00 0.0000000000000000e+00 0.0000000000000000e+00  6.9675531113956579e-05 2.9133767446988545e-04 0.0000000000000000e+00 2.9133767446988545e-04 5.6992233934492063e-02 0.0000000000000000e+00 0.0000000000000000e+00 0.0000000000000000e+00 0.0000000000000000e+00  2.0961040144406792e-05 -1.3257063671298546e-04 0.0000000000000000e+00 -1.3257063671298546e-04 5.5958514747368952e-02 0.0000000000000000e+00 0.0000000000000000e+00 0.0000000000000000e+00 0.0000000000000000e+00  4.8700026236718911e-03 1.5503140021580380e-03 0.0000000000000000e+00 1.5503140021580380e-03 5.5624340999147780e-02 0.0000000000000000e+00 0.0000000000000000e+00 0.0000000000000000e+00 0.0000000000000000e+00  -1.2254065444536159e-04 -3.3867792588197429e-04 0.0000000000000000e+00 -3.3867792588197429e-04 5.4472313947932470e-02 0.0000000000000000e+00 0.0000000000000000e+00 0.0000000000000000e+00 0.0000000000000000e+00  -1.3137318407174109e-04 -2.1633897340830684e-04 0.0000000000000000e+00 -2.1633897340830684e-04 5.6018431876655873e-02 0.0000000000000000e+00 0.0000000000000000e+00 0.0000000000000000e+00 0.0000000000000000e+00  -2.8280507647676124e-04 -1.3242294943772781e-04 0.0000000000000000e+00 -1.3242294943772781e-04 5.5824932090390501e-02 0.0000000000000000e+00 0.0000000000000000e+00 0.0000000000000000e+00 0.0000000000000000e+00  1.3373117978179860e-05 -3.6960843647114910e-04 0.0000000000000000e+00 -3.6960843647114910e-04 5.6594995396061928e-02 0.0000000000000000e+00 0.0000000000000000e+00 0.0000000000000000e+00 0.0000000000000000e+00  6.9418495696491403e-04 -6.1702632705438120e-04 0.0000000000000000e+00 -6.1702632705438120e-04 5.7028657256250281e-02 0.0000000000000000e+00 0.0000000000000000e+00 0.0000000000000000e+00 0.0000000000000000e+00  2.6086028049512183e-04 1.3118276894436118e-04 0.0000000000000000e+00 1.3118276894436118e-04 5.5902013097208658e-02 0.0000000000000000e+00 0.0000000000000000e+00 0.0000000000000000e+00 0.0000000000000000e+00  2.9539774166676036e-03 -8.2391294403204220e-04 0.0000000000000000e+00 -8.2391294403204220e-04 5.7506826669329610e-02 0.0000000000000000e+00 0.0000000000000000e+00 0.0000000000000000e+00 0.0000000000000000e+00  8.6330719032219842e-03 8.9772610274068288e-03 0.0000000000000000e+00 8.9772610274068288e-03 6.1499911860144071e-02 0.0000000000000000e+00 0.0000000000000000e+00 0.0000000000000000e+00 0.0000000000000000e+00  5.5847929026441607e-03 -2.0662795866350303e-03 0.0000000000000000e+00 -2.0662795866350303e-03 5.6272835528820918e-02 0.0000000000000000e+00 0.0000000000000000e+00 0.0000000000000000e+00 0.0000000000000000e+00  -3.2712888644204074e-05 -5.9567905536550916e-05 0.0000000000000000e+00 -5.9567905536550916e-05 5.6000362013601618e-02 0.0000000000000000e+00 0.0000000000000000e+00 0.0000000000000000e+00 0.0000000000000000e+00  -5.3606446208279840e-05 -3.0902595378498181e-05 0.0000000000000000e+00 -3.0902595378498181e-05 5.6141554972225220e-02 0.0000000000000000e+00 0.0000000000000000e+00 0.0000000000000000e+00 0.0000000000000000e+00  8.8499884138144164e-04 -1.3549206460553276e-03 0.0000000000000000e+00 -1.3549206460553276e-03 5.6859962263487801e-02 0.0000000000000000e+00 0.0000000000000000e+00 0.0000000000000000e+00 0.0000000000000000e+00  -1.0481136057937863e-04 -2.1703704135410889e-04 0.0000000000000000e+00 -2.1703704135410889e-04 5.6087492617736018e-02 0.0000000000000000e+00 0.0000000000000000e+00 0.0000000000000000e+00 0.0000000000000000e+00  -3.0948264245116500e-05 -5.3565907096442901e-05 0.0000000000000000e+00 -5.3565907096442901e-05 5.6015463516104244e-02 0.0000000000000000e+00 0.0000000000000000e+00 0.0000000000000000e+00 0.0000000000000000e+00  8.2821804889762415e-03 1.5585642871894579e-03 0.0000000000000000e+00 1.5585642871894579e-03 5.8256765848635886e-02 0.0000000000000000e+00 0.0000000000000000e+00 0.0000000000000000e+00 0.0000000000000000e+00  2.5799706120325366e-06 -5.1976059127610202e-05 0.0000000000000000e+00 -5.1976059127610202e-05 5.6091850397235035e-02 0.0000000000000000e+00 0.0000000000000000e+00 0.0000000000000000e+00 0.0000000000000000e+00  -7.7227513908782741e-06 -5.1827818694265603e-05 0.0000000000000000e+00 -5.1827818694265603e-05 5.6101486037292023e-02 0.0000000000000000e+00 0.0000000000000000e+00 0.0000000000000000e+00 0.0000000000000000e+00  8.1945581328300068e-03 -3.6132456310954183e-03 0.0000000000000000e+00 -3.6132456310954183e-03 5.4464956596344198e-02 0.0000000000000000e+00 0.0000000000000000e+00 0.0000000000000000e+00 0.0000000000000000e+00  -4.5409456721056542e-05 -4.6875921871350938e-05 0.0000000000000000e+00 -4.6875921871350938e-05 5.5842114787948795e-02 0.0000000000000000e+00 0.0000000000000000e+00 0.0000000000000000e+00 0.0000000000000000e+00  3.0327609377444470e-05 -6.0931064707041012e-05 0.0000000000000000e+00 -6.0931064707041012e-05 5.6039031159805179e-02 0.0000000000000000e+00 0.0000000000000000e+00 0.0000000000000000e+00 0.0000000000000000e+00  -5.7364557466655156e-05 -5.6417640281396809e-05 0.0000000000000000e+00 -5.6417640281396809e-05 5.5801121423346423e-02 0.0000000000000000e+00 0.0000000000000000e+00 0.0000000000000000e+00 0.0000000000000000e+00  -1.9905811707025646e-04 -1.8100511571621187e-04 0.0000000000000000e+00 -1.8100511571621187e-04 5.6051243865239173e-02 0.0000000000000000e+00 0.0000000000000000e+00 0.0000000000000000e+00 0.0000000000000000e+00  -2.2993516572763183e-04 -2.6664517740898272e-04 0.0000000000000000e+00 -2.6664517740898272e-04 5.6467501191567765e-02 0.0000000000000000e+00 0.0000000000000000e+00 0.0000000000000000e+00 0.0000000000000000e+00  4.1221285195305879e-06 -5.4891193990228619e-05 0.0000000000000000e+00 -5.4891193990228619e-05 5.6090899415131949e-02 0.0000000000000000e+00 0.0000000000000000e+00 0.0000000000000000e+00 0.0000000000000000e+00  1.1959486623199494e-03 -1.0385818350471014e-03 0.0000000000000000e+00 -1.0385818350471014e-03 5.6037039887132246e-02 0.0000000000000000e+00 0.0000000000000000e+00 0.0000000000000000e+00 0.0000000000000000e+00  3.4627746037071278e-05 7.7304000358376134e-05 0.0000000000000000e+00 7.7304000358376134e-05 5.5815000583955568e-02 0.0000000000000000e+00 0.0000000000000000e+00 0.0000000000000000e+00 0.0000000000000000e+00  9.4220582711483994e-05 -4.8528718993813444e-04 0.0000000000000000e+00 -4.8528718993813444e-04 5.5969941959309044e-02 0.0000000000000000e+00 0.0000000000000000e+00 0.0000000000000000e+00 0.0000000000000000e+00  3.9490161424096479e-03 4.4170835301352764e-03 0.0000000000000000e+00 4.4170835301352764e-03 5.3229776147809577e-02 0.0000000000000000e+00 0.0000000000000000e+00 0.0000000000000000e+00 0.0000000000000000e+00  -5.0421155338107114e-05 -1.0067350601738001e-04 0.0000000000000000e+00 -1.0067350601738001e-04 5.5993329417029787e-02 0.0000000000000000e+00 0.0000000000000000e+00 0.0000000000000000e+00 0.0000000000000000e+00  -5.9164894583546575e-05 -7.7785591745612270e-05 0.0000000000000000e+00 -7.7785591745612270e-05 5.5970595694991652e-02 0.0000000000000000e+00 0.0000000000000000e+00 0.0000000000000000e+00 0.0000000000000000e+00  -8.1088208558378904e-07 -6.2948781373468418e-05 0.0000000000000000e+00 -6.2948781373468418e-05 5.6093820709720139e-02 0.0000000000000000e+00 0.0000000000000000e+00 0.0000000000000000e+00 0.0000000000000000e+00  -6.5291505474624270e-05 -7.6290391181131449e-05 0.0000000000000000e+00 -7.6290391181131449e-05 5.5984365039204884e-02 0.0000000000000000e+00 0.0000000000000000e+00 0.0000000000000000e+00 0.0000000000000000e+00  -1.0835832822268453e-05 -5.1429460304260676e-05 0.0000000000000000e+00 -5.1429460304260676e-05 5.6052008715642185e-02 0.0000000000000000e+00 0.0000000000000000e+00 0.0000000000000000e+00 0.0000000000000000e+00  2.8290627575122337e-05 -6.2326038037757581e-05 0.0000000000000000e+00 -6.2326038037757581e-05 5.6023824904455163e-02 0.0000000000000000e+00 0.0000000000000000e+00 0.0000000000000000e+00 0.0000000000000000e+00  -2.2876740747874301e-06 -5.0865705839885443e-05 0.0000000000000000e+00 -5.0865705839885443e-05 5.6079194521048620e-02 0.0000000000000000e+00 0.0000000000000000e+00 0.0000000000000000e+00 0.0000000000000000e+00  -1.2047630525464058e-04 -1.2758366163635038e-04 0.0000000000000000e+00 -1.2758366163635038e-04 5.5608136094869233e-02 0.0000000000000000e+00 0.0000000000000000e+00 0.0000000000000000e+00 0.0000000000000000e+00  -6.5418719509574563e-05 -7.0987990461858882e-05 0.0000000000000000e+00 -7.0987990461858882e-05 5.5987561123117896e-02 0.0000000000000000e+00 0.0000000000000000e+00 0.0000000000000000e+00 0.0000000000000000e+00  -1.7548910353453254e-05 -4.9309953626587817e-05 0.0000000000000000e+00 -4.9309953626587817e-05 5.6111983104020775e-02 0.0000000000000000e+00 0.0000000000000000e+00 0.0000000000000000e+00 0.0000000000000000e+00  3.1419936548285673e-03 -3.5440060412866661e-03 0.0000000000000000e+00 -3.5440060412866661e-03 4.9921557484575947e-02 0.0000000000000000e+00 0.0000000000000000e+00 0.0000000000000000e+00 0.0000000000000000e+00  -4.5025890453749551e-06 -4.7857518008884599e-05 0.0000000000000000e+00 -4.7857518008884599e-05 5.6092400822427911e-02 0.0000000000000000e+00 0.0000000000000000e+00 0.0000000000000000e+00 0.0000000000000000e+00  6.8577594624844454e-03 4.1019149928128388e-03 0.0000000000000000e+00 4.1019149928128388e-03 5.4348523578609954e-02 0.0000000000000000e+00 0.0000000000000000e+00 0.0000000000000000e+00 0.0000000000000000e+00  7.7321083969710321e-03 -6.1320681427946442e-04 0.0000000000000000e+00 -6.1320681427946442e-04 5.6621830808367996e-02 0.0000000000000000e+00 0.0000000000000000e+00 0.0000000000000000e+00 0.0000000000000000e+00  -1.9552929060164679e-05 -3.9275519168645390e-05 0.0000000000000000e+00 -3.9275519168645390e-05 5.6106772655378508e-02 0.0000000000000000e+00 0.0000000000000000e+00 0.0000000000000000e+00 0.0000000000000000e+00  1.4763093485179772e-04 -3.6376820628753425e-04 0.0000000000000000e+00 -3.6376820628753425e-04 5.5174760080104440e-02 0.0000000000000000e+00 0.0000000000000000e+00 0.0000000000000000e+00 0.0000000000000000e+00  -5.5736165548462592e-04 -2.3967888512524784e-04 0.0000000000000000e+00 -2.3967888512524784e-04 5.3283734836168523e-02 0.0000000000000000e+00 0.0000000000000000e+00 0.0000000000000000e+00 0.0000000000000000e+00  4.0816364358900632e-04 8.8376972835056764e-04 0.0000000000000000e+00 8.8376972835056764e-04 5.2874248493760483e-02 0.0000000000000000e+00 0.0000000000000000e+00 0.0000000000000000e+00 0.0000000000000000e+00  3.9345836421026664e-03 -4.6486650967819511e-03 0.0000000000000000e+00 -4.6486650967819511e-03 5.2826504869149367e-02 0.0000000000000000e+00 0.0000000000000000e+00 0.0000000000000000e+00 0.0000000000000000e+00  3.9768565490521525e-05 -1.0639503144244867e-04 0.0000000000000000e+00 -1.0639503144244867e-04 5.6024772758806803e-02 0.0000000000000000e+00 0.0000000000000000e+00 0.0000000000000000e+00 0.0000000000000000e+00  -3.9647272921413372e-04 1.7952394852755523e-04 0.0000000000000000e+00 1.7952394852755523e-04 5.6224024358978622e-02 0.0000000000000000e+00 0.0000000000000000e+00 0.0000000000000000e+00 0.0000000000000000e+00  -2.0103348948861087e-04 6.3013056135206280e-05 0.0000000000000000e+00 6.3013056135206280e-05 5.6184923103550721e-02 0.0000000000000000e+00 0.0000000000000000e+00 0.0000000000000000e+00 0.0000000000000000e+00  -1.3607794720867789e-05 -1.5035342083036495e-05 0.0000000000000000e+00 -1.5035342083036495e-05 5.6206309393424435e-02 0.0000000000000000e+00 0.0000000000000000e+00 0.0000000000000000e+00 0.0000000000000000e+00  -1.0821296823486716e-04 -1.6600369020356771e-04 0.0000000000000000e+00 -1.6600369020356771e-04 5.5622662325582183e-02 0.0000000000000000e+00 0.0000000000000000e+00 0.0000000000000000e+00 0.0000000000000000e+00  7.0181422638427443e-04 -7.5984354271734856e-05 0.0000000000000000e+00 -7.5984354271734856e-05 5.4458016507772877e-02 0.0000000000000000e+00 0.0000000000000000e+00 0.0000000000000000e+00 0.0000000000000000e+00  1.4841015665247939e-03 2.1099314386373016e-03 0.0000000000000000e+00 2.1099314386373016e-03 5.6491963592138185e-02 0.0000000000000000e+00 0.0000000000000000e+00 0.0000000000000000e+00 0.0000000000000000e+00  1.1230537173542374e-04 -2.5325561829333664e-04 0.0000000000000000e+00 -2.5325561829333664e-04 5.5324087998666352e-02 0.0000000000000000e+00 0.0000000000000000e+00 0.0000000000000000e+00 0.0000000000000000e+00  -6.3882436462336240e-05 -2.0483268302020198e-04 0.0000000000000000e+00 -2.0483268302020198e-04 5.4865999697352175e-02 0.0000000000000000e+00 0.0000000000000000e+00 0.0000000000000000e+00 0.0000000000000000e+00  2.0894253712795290e-02 4.0886082004961088e-04 0.0000000000000000e+00 4.0886082004961088e-04 5.4325059653267747e-02 0.0000000000000000e+00 0.0000000000000000e+00 0.0000000000000000e+00 0.0000000000000000e+00  -1.3422763288795797e-05 -9.1052065767630066e-05 0.0000000000000000e+00 -9.1052065767630066e-05 5.6122750609299922e-02 0.0000000000000000e+00 0.0000000000000000e+00 0.0000000000000000e+00 0.0000000000000000e+00  -1.1679461151187233e-05 -3.1794074527731481e-05 0.0000000000000000e+00 -3.1794074527731481e-05 5.5949921774527164e-02 0.0000000000000000e+00 0.0000000000000000e+00 0.0000000000000000e+00 0.0000000000000000e+00  8.9771837777822758e-04 2.7387453486579371e-05 0.0000000000000000e+00 2.7387453486579371e-05 5.5261641147247034e-02 0.0000000000000000e+00 0.0000000000000000e+00 0.0000000000000000e+00 0.0000000000000000e+00  2.0274115572183203e-03 -1.4901660759154664e-03 0.0000000000000000e+00 -1.4901660759154664e-03 5.6356833308252273e-02 0.0000000000000000e+00 0.0000000000000000e+00 0.0000000000000000e+00 0.0000000000000000e+00  -8.3112222690473470e-06 -5.6938734673924111e-06 0.0000000000000000e+00 -5.6938734673924111e-06 5.6158976212202151e-02 0.0000000000000000e+00 0.0000000000000000e+00 0.0000000000000000e+00 0.0000000000000000e+00  -2.0727715608990366e-06 -2.5419335913036273e-05 0.0000000000000000e+00 -2.5419335913036273e-05 5.6175196184043479e-02 0.0000000000000000e+00 0.0000000000000000e+00 0.0000000000000000e+00 0.0000000000000000e+00  -2.5170044050948359e-05 -2.7343710389724458e-05 0.0000000000000000e+00 -2.7343710389724458e-05 5.5919865101665300e-02 0.0000000000000000e+00 0.0000000000000000e+00 0.0000000000000000e+00 0.0000000000000000e+00  -1.2915391798004952e-04 5.7400023597692342e-05 0.0000000000000000e+00 5.7400023597692342e-05 5.6506263209929380e-02 0.0000000000000000e+00 0.0000000000000000e+00 0.0000000000000000e+00 0.0000000000000000e+00  -6.9603176921827561e-05 9.1844783965539103e-06 0.0000000000000000e+00 9.1844783965539103e-06 5.6295721390806380e-02 0.0000000000000000e+00 0.0000000000000000e+00 0.0000000000000000e+00 0.0000000000000000e+00  5.8836777599123591e-06 -1.7142731893159122e-05 0.0000000000000000e+00 -1.7142731893159122e-05 5.6129995016633197e-02 0.0000000000000000e+00 0.0000000000000000e+00 0.0000000000000000e+00 0.0000000000000000e+00  2.4928774114020939e-03 4.1313193391429102e-04 0.0000000000000000e+00 4.1313193391429102e-04 5.6435779303810697e-02 0.0000000000000000e+00 0.0000000000000000e+00 0.0000000000000000e+00 0.0000000000000000e+00  -1.9128058852624367e-05 -3.3898079819971135e-05 0.0000000000000000e+00 -3.3898079819971135e-05 5.6120556264852829e-02 0.0000000000000000e+00 0.0000000000000000e+00 0.0000000000000000e+00 0.0000000000000000e+00  -1.1341160048175883e-05 -2.9425917516348756e-05 0.0000000000000000e+00 -2.9425917516348756e-05 5.6075712411058881e-02 0.0000000000000000e+00 0.0000000000000000e+00 0.0000000000000000e+00 0.0000000000000000e+00  5.1667080687306625e-03 -1.0338561204916458e-03 0.0000000000000000e+00 -1.0338561204916458e-03 5.6030028378309664e-02 0.0000000000000000e+00 0.0000000000000000e+00 0.0000000000000000e+00 0.0000000000000000e+00  -2.0054446394156267e-04 3.1117125835795504e-04 0.0000000000000000e+00 3.1117125835795504e-04 5.5823142623431084e-02 0.0000000000000000e+00 0.0000000000000000e+00 0.0000000000000000e+00 0.0000000000000000e+00  -6.1766154396037179e-05 2.3850832373797801e-05 0.0000000000000000e+00 2.3850832373797801e-05 5.6195193285221150e-02 0.0000000000000000e+00 0.0000000000000000e+00 0.0000000000000000e+00 0.0000000000000000e+00  2.1988551355046678e-02 -4.9941253131509326e-03 0.0000000000000000e+00 -4.9941253131509326e-03 5.7170233523121373e-02 0.0000000000000000e+00 0.0000000000000000e+00 0.0000000000000000e+00 0.0000000000000000e+00  -1.9209826559242124e-05 -4.7407628535608287e-05 0.0000000000000000e+00 -4.7407628535608287e-05 5.6120343668818046e-02 0.0000000000000000e+00 0.0000000000000000e+00 0.0000000000000000e+00 0.0000000000000000e+00  -2.0005260644523352e-05 -1.6687392491614579e-05 0.0000000000000000e+00 -1.6687392491614579e-05 5.6193806797692633e-02 0.0000000000000000e+00 0.0000000000000000e+00 0.0000000000000000e+00 0.0000000000000000e+00  2.8472880226200139e-04 -5.2316485842994049e-05 0.0000000000000000e+00 -5.2316485842994049e-05 5.6233298449792295e-02 0.0000000000000000e+00 0.0000000000000000e+00 0.0000000000000000e+00 0.0000000000000000e+00  -4.6227314651411944e-06 -3.2124283922425886e-05 0.0000000000000000e+00 -3.2124283922425886e-05 5.6102678352648060e-02 0.0000000000000000e+00 0.0000000000000000e+00 0.0000000000000000e+00 0.0000000000000000e+00  8.3427871889620638e-03 2.4333833025940409e-05 0.0000000000000000e+00 2.4333833025940409e-05 5.6856707266816429e-02 0.0000000000000000e+00 0.0000000000000000e+00 0.0000000000000000e+00 0.0000000000000000e+00  6.3933828119506885e-03 -3.3253727323303824e-04 0.0000000000000000e+00 -3.3253727323303824e-04 5.1788255886586851e-02 0.0000000000000000e+00 0.0000000000000000e+00 0.0000000000000000e+00 0.0000000000000000e+00  -1.2167695328904084e-04 -1.5094810071217539e-04 0.0000000000000000e+00 -1.5094810071217539e-04 5.6252434891058828e-02 0.0000000000000000e+00 0.0000000000000000e+00 0.0000000000000000e+00 0.0000000000000000e+00  7.9729773244559266e-06 -2.4158389618141039e-05 0.0000000000000000e+00 -2.4158389618141039e-05 5.6125929168227735e-02 0.0000000000000000e+00 0.0000000000000000e+00 0.0000000000000000e+00 0.0000000000000000e+00  5.7344320350885547e-07 -2.7526572341645561e-05 0.0000000000000000e+00 -2.7526572341645561e-05 5.6072344861093359e-02 0.0000000000000000e+00 0.0000000000000000e+00 0.0000000000000000e+00 0.0000000000000000e+00  -4.7734321155287057e-06 -2.7367615545980124e-05 0.0000000000000000e+00 -2.7367615545980124e-05 5.6066191593661642e-02 0.0000000000000000e+00 0.0000000000000000e+00 0.0000000000000000e+00 0.0000000000000000e+00  -1.7978792690604220e-05 -7.6873473294681625e-05 0.0000000000000000e+00 -7.6873473294681625e-05 5.6107378092443504e-02 0.0000000000000000e+00 0.0000000000000000e+00 0.0000000000000000e+00 0.0000000000000000e+00  -6.6252898081823461e-06 -2.9524020749907933e-05 0.0000000000000000e+00 -2.9524020749907933e-05 5.6053628155262970e-02 0.0000000000000000e+00 0.0000000000000000e+00 0.0000000000000000e+00 0.0000000000000000e+00  1.0431191697815641e-03 -1.9384948465717379e-03 0.0000000000000000e+00 -1.9384948465717379e-03 5.6082743009883730e-02 0.0000000000000000e+00 0.0000000000000000e+00 0.0000000000000000e+00 0.0000000000000000e+00  -7.5222886885932528e-07 -5.3013162630982420e-05 0.0000000000000000e+00 -5.3013162630982420e-05 5.6090568782050064e-02 0.0000000000000000e+00 0.0000000000000000e+00 0.0000000000000000e+00 0.0000000000000000e+00  1.1451856021492401e-05 -2.8086637773296176e-05 0.0000000000000000e+00 -2.8086637773296176e-05 5.6046730705501688e-02 0.0000000000000000e+00 0.0000000000000000e+00 0.0000000000000000e+00 0.0000000000000000e+00  2.2266680988398457e-02 -1.1003356655161763e-04 0.0000000000000000e+00 -1.1003356655161763e-04 5.7893370569835990e-02 0.0000000000000000e+00 0.0000000000000000e+00 0.0000000000000000e+00 0.0000000000000000e+00  