<?xml version="1.0"?>
<VTKFile type="UnstructuredGrid"  version="0.1"  >
<UnstructuredGrid>
<Piece  NumberOfPoints="105" NumberOfCells="160">
<Points>
<DataArray  type="Float64"  NumberOfComponents="3"  format="ascii">0 0 0  10 0 0  10 50 0  0 50 0  2.499999999995362 0 0  4.999999999992398 0 0  7.499999999996199 0 0  10 2.499999999989877 0  10 4.99999999998079 0  10 7.499999999970039 0  10 9.999999999957065 0  10 12.49999999994409 0  10 14.99999999993112 0  10 17.49999999992411 0  10 19.99999999992002 0  10 22.49999999991594 0  10 24.99999999991184 0  10 27.49999999990775 0  10 29.99999999990366 0  10 32.4999999999043 0  10 34.99999999991796 0  10 37.49999999993164 0  10 39.99999999994531 0  10 42.49999999995898 0  10 44.99999999997265 0  10 47.49999999998633 0  7.5 50 0  5 50 0  2.5 50 0  0 47.50000000001776 0  0 45.00000000003553 0  0 42.50000000005329 0  0 40.00000000007105 0  0 37.50000000008882 0  0 35.00000000010658 0  0 32.50000000012434 0  0 30.00000000012907 0  0 27.50000000012907 0  0 25.00000000012907 0  0 22.50000000012907 0  0 20.00000000012907 0  0 17.50000000012435 0  0 15.00000000010658 0  0 12.50000000008882 0  0 10.00000000007105 0  0 7.500000000053291 0  0 5.000000000035527 0  0 2.500000000017764 0  2.499999999982236 35.00000000010658 0  2.499999999982236 42.50000000005329 0  2.499999999997639 30.00000000012671 0  7.500000000004093 22.49999999991594 0  7.500000000012971 12.49999999994409 0  7.500000000011863 4.999999999981902 0  7.500000000004089 27.49999999990776 0  7.499999999992852 32.49999999991081 0  2.5 27.50000000012907 0  2.499999999999997 22.50000000012907 0  7.499999999986333 34.99999999991797 0  7.499999999986329 39.99999999994531 0  2.499999999982236 40.00000000007105 0  7.499999999986329 42.49999999995898 0  2.500000000007127 17.50000000011767 0  7.500000000005548 17.49999999992557 0  2.50000000001776 12.50000000008881 0  2.500000000017764 7.500000000053291 0  7.500000000012974 7.499999999970039 0  2.781669690934465 4.567383976653695 0  2.5 47.5 0  7.499999999986329 44.99999999997266 0  4.799807399954771 2.247745758973802 0  5 47.5 0  7.499999999993165 47.49999999999316 0  7.50000000000316 2.499999999996839 0  2.003550394840955 1.894072201235335 0  2.500000000008882 10.00000000007993 0  7.499999999993165 37.4999999999248 0  2.500000000008879 15.00000000010894 0  4.999999999988333 32.50000000004947 0  4.999999999972331 42.50000000006115 0  4.999999999996612 30.00000000006417 0  2.499999999999485 20.00000000012959 0  7.500000000004084 29.99999999990367 0  2.499999999999321 25.00000000012975 0  2.499999999987595 32.50000000011485 0  7.500000000003581 24.99999999991235 0  7.500000000004083 19.99999999992149 0  7.500000000008375 14.9999999999351 0  5.046944948499682 7.427897329434801 0  7.507824158089321 9.987982888204392 0  2.499999999986166 37.50000000008489 0  5.222495055864212 4.967158955683296 0  2.499999999989468 45.00000000001053 0  4.999999999986329 45 0  4.999999999986308 35.00000000003244 0  4.999999999972331 40.00000000007498 0  5.000000000007915 27.49999999990853 0  5.000000000002172 22.5000000000196 0  5.000000000001386 20.00000000008837 0  5.000000000018222 12.49999999995574 0  5.000000000013031 14.99999999995391 0  5.000000000010303 9.999999999976275 0  5.000000000006392 24.99999999991287 0  5.000000000006676 17.50000000001932 0  4.999999999984422 37.50000000002817 0  </DataArray>
</Points>
<Cells>
<DataArray  type="UInt32"  Name="connectivity"  format="ascii">67 70 74  47 67 74  4 70 74  3 28 29  1 6 7  2 25 26  80 82 96  56 80 96  63 100 103  77 100 103  78 84 94  58 78 94  67 70 91  65 75 101  58 76 94  76 94 104  45 65 75  59 76 104  69 72 93  64 77 100  65 67 88  21 59 76  25 69 72  44 45 75  43 64 77  59 61 95  59 95 104  61 79 95  61 69 79  69 79 93  0 47 74  29 30 68  55 80 82  50 78 84  46 65 67  43 64 75  62 81 98  70 73 91  83 96 102  56 83 96  6 70 73  41 42 62  41 62 81  19 20 55  64 75 99  75 99 101  57 97 102  30 68 92  23 61 69  23 59 61  25 26 72  20 55 58  20 58 76  81 97 98  62 77 103  57 81 97  19 55 82  57 83 102  42 43 77  55 58 78  51 86 98  28 29 68  51 97 98  26 71 72  71 72 93  86 98 103  43 44 75  45 46 65  46 47 67  6 7 73  42 62 77  52 89 101  48 90 104  35 36 84  20 21 76  23 24 69  24 25 69  21 22 59  22 23 59  5 6 70  55 78 80  40 41 81  30 31 92  68 92 93  36 50 84  36 37 50  18 19 82  52 99 101  48 94 104  37 50 56  53 66 91  50 78 80  38 57 83  7 53 73  10 11 89  12 13 87  27 28 68  50 56 80  13 14 63  31 49 92  37 56 83  68 71 93  27 68 71  64 99 100  37 38 83  38 39 57  16 54 85  62 98 103  39 57 81  7 8 53  85 96 102  16 17 54  26 27 71  39 40 81  16 51 85  17 18 54  85 97 102  79 92 93  14 15 86  14 63 86  66 88 91  13 63 87  15 16 51  18 54 82  54 85 96  65 88 101  67 88 91  51 85 97  4 5 70  15 51 86  54 82 96  53 73 91  8 9 66  63 86 103  11 52 89  88 89 101  10 66 89  33 48 90  33 60 90  90 95 104  12 52 87  0 4 74  63 87 100  66 88 89  35 48 84  11 12 52  9 10 66  33 34 48  34 35 48  31 32 49  32 33 60  60 90 95  49 60 95  52 87 99  48 84 94  49 79 92  87 99 100  8 53 66  32 49 60  49 79 95  </DataArray>
<DataArray  type="UInt32"  Name="offsets"  format="ascii">3 6 9 12 15 18 21 24 27 30 33 36 39 42 45 48 51 54 57 60 63 66 69 72 75 78 81 84 87 90 93 96 99 102 105 108 111 114 117 120 123 126 129 132 135 138 141 144 147 150 153 156 159 162 165 168 171 174 177 180 183 186 189 192 195 198 201 204 207 210 213 216 219 222 225 228 231 234 237 240 243 246 249 252 255 258 261 264 267 270 273 276 279 282 285 288 291 294 297 300 303 306 309 312 315 318 321 324 327 330 333 336 339 342 345 348 351 354 357 360 363 366 369 372 375 378 381 384 387 390 393 396 399 402 405 408 411 414 417 420 423 426 429 432 435 438 441 444 447 450 453 456 459 462 465 468 471 474 477 480 </DataArray>
<DataArray  type="UInt8"  Name="types"  format="ascii">5 5 5 5 5 5 5 5 5 5 5 5 5 5 5 5 5 5 5 5 5 5 5 5 5 5 5 5 5 5 5 5 5 5 5 5 5 5 5 5 5 5 5 5 5 5 5 5 5 5 5 5 5 5 5 5 5 5 5 5 5 5 5 5 5 5 5 5 5 5 5 5 5 5 5 5 5 5 5 5 5 5 5 5 5 5 5 5 5 5 5 5 5 5 5 5 5 5 5 5 5 5 5 5 5 5 5 5 5 5 5 5 5 5 5 5 5 5 5 5 5 5 5 5 5 5 5 5 5 5 5 5 5 5 5 5 5 5 5 5 5 5 5 5 5 5 5 5 5 5 5 5 5 5 5 5 5 5 5 5 </DataArray>
</Cells>
<PointData  Vectors="f_16"> 
<DataArray  type="Float64"  Name="f_16"  NumberOfComponents="3" format="ascii">0.0000000000000000e+00 0.0000000000000000e+00 0.0000000000000000e+00  0.0000000000000000e+00 0.0000000000000000e+00 0.0000000000000000e+00  0.0000000000000000e+00 1.0000000000000000e+00 0.0000000000000000e+00  0.0000000000000000e+00 1.0000000000000000e+00 0.0000000000000000e+00  0.0000000000000000e+00 0.0000000000000000e+00 0.0000000000000000e+00  0.0000000000000000e+00 0.0000000000000000e+00 0.0000000000000000e+00  0.0000000000000000e+00 0.0000000000000000e+00 0.0000000000000000e+00  -2.7599466393286504e-02 4.7511741712981906e-02 0.0000000000000000e+00  -3.5112416724030669e-02 9.7779801662770061e-02 0.0000000000000000e+00  -3.6854258513770839e-02 1.4707683026619892e-01 0.0000000000000000e+00  -3.7486090180810713e-02 1.9680064046776649e-01 0.0000000000000000e+00  -3.7421179886583798e-02 2.4726616660808176e-01 0.0000000000000000e+00  -3.7390743047017630e-02 2.9796523727979468e-01 0.0000000000000000e+00  -3.7510273021283111e-02 3.4871845557686454e-01 0.0000000000000000e+00  -3.7747955965325243e-02 3.9945592187353340e-01 0.0000000000000000e+00  -3.8059385003058853e-02 4.5015337099426772e-01 0.0000000000000000e+00  -3.8407125691769420e-02 5.0080350507728644e-01 0.0000000000000000e+00  -3.8740313119072951e-02 5.5139727173632969e-01 0.0000000000000000e+00  -3.9068224959243038e-02 6.0194945144099354e-01 0.0000000000000000e+00  -3.9361838062827413e-02 6.5244140258974970e-01 0.0000000000000000e+00  -3.9652846124604547e-02 7.0283733323522213e-01 0.0000000000000000e+00  -3.9749633176373027e-02 7.5308981067117364e-01 0.0000000000000000e+00  -3.9460086896204158e-02 8.0299617297172332e-01 0.0000000000000000e+00  -3.9049483277851793e-02 8.5255015965587555e-01 0.0000000000000000e+00  -3.5918324136107738e-02 9.0146996128594348e-01 0.0000000000000000e+00  -2.7322375512061185e-02 9.5195433759630110e-01 0.0000000000000000e+00  0.0000000000000000e+00 1.0000000000000000e+00 0.0000000000000000e+00  0.0000000000000000e+00 1.0000000000000000e+00 0.0000000000000000e+00  0.0000000000000000e+00 1.0000000000000000e+00 0.0000000000000000e+00  2.6982665359879508e-02 9.5239759911055832e-01 0.0000000000000000e+00  3.5773662506099958e-02 9.0353489790524932e-01 0.0000000000000000e+00  3.8019458867376392e-02 8.5395762408439879e-01 0.0000000000000000e+00  3.8418965635597047e-02 8.0382422695355416e-01 0.0000000000000000e+00  3.8500284443277362e-02 7.5330511997729954e-01 0.0000000000000000e+00  3.8495594141877310e-02 7.0263210005862231e-01 0.0000000000000000e+00  3.8634877374189011e-02 6.5188987234352003e-01 0.0000000000000000e+00  3.8855940786648710e-02 6.0114334032360761e-01 0.0000000000000000e+00  3.9147534615499704e-02 5.5042890183399862e-01 0.0000000000000000e+00  3.9496162153719393e-02 4.9976242861869735e-01 0.0000000000000000e+00  3.9846032984455472e-02 4.4914176084243373e-01 0.0000000000000000e+00  4.0169451069808043e-02 3.9857707289408861e-01 0.0000000000000000e+00  4.0488408294114833e-02 3.4806267147908981e-01 0.0000000000000000e+00  4.0779209952339149e-02 2.9763388401158281e-01 0.0000000000000000e+00  4.1136457105108722e-02 2.4739026243069995e-01 0.0000000000000000e+00  4.0798327840077524e-02 1.9763097587707554e-01 0.0000000000000000e+00  4.0397472874033905e-02 1.4841203250204887e-01 0.0000000000000000e+00  3.8243718897606131e-02 1.0011513242201030e-01 0.0000000000000000e+00  3.0019765972646280e-02 5.2523159352162320e-02 0.0000000000000000e+00  1.8970512130194891e-02 7.0281185919326827e-01 0.0000000000000000e+00  1.8751054852266399e-02 8.5518185485644982e-01 0.0000000000000000e+00  1.9348793081770947e-02 6.0137138581262795e-01 0.0000000000000000e+00  -1.8575891787661034e-02 4.4987885894497981e-01 0.0000000000000000e+00  -1.7811758353849971e-02 2.4698632133524145e-01 0.0000000000000000e+00  -1.6580946873965118e-02 9.5113088448462946e-02 0.0000000000000000e+00  -1.9289981216380529e-02 5.5113430090345950e-01 0.0000000000000000e+00  -1.9934661231953275e-02 6.5229143862880856e-01 0.0000000000000000e+00  1.9663264666035324e-02 5.5070051658854879e-01 0.0000000000000000e+00  2.0376986488356803e-02 4.4942281524231570e-01 0.0000000000000000e+00  -2.0165198756126879e-02 7.0285847947604208e-01 0.0000000000000000e+00  -2.0351720912712774e-02 8.0391885829762899e-01 0.0000000000000000e+00  1.8884443846109093e-02 8.0439203574412121e-01 0.0000000000000000e+00  -1.9700535901267101e-02 8.5441456264217319e-01 0.0000000000000000e+00  2.1057790455371487e-02 3.4823628333249945e-01 0.0000000000000000e+00  -1.7980474245157006e-02 3.4852249111408112e-01 0.0000000000000000e+00  2.1567011912177199e-02 2.4705436087678076e-01 0.0000000000000000e+00  2.1393002339027842e-02 1.4565908131280372e-01 0.0000000000000000e+00  -1.7982560300925869e-02 1.4519647344076309e-01 0.0000000000000000e+00  1.6802993966096965e-02 8.5187339599089779e-02 0.0000000000000000e+00  1.2485313282877331e-02 9.5602289728990664e-01 0.0000000000000000e+00  -1.7642872914072457e-02 9.0479108131336805e-01 0.0000000000000000e+00  9.1901517427706383e-04 3.7571976135886587e-02 0.0000000000000000e+00  2.7508391637904407e-04 9.5546663802320309e-01 0.0000000000000000e+00  -1.2404898367005793e-02 9.5331652713810677e-01 0.0000000000000000e+00  -1.2808984657340029e-02 4.6324419797752252e-02 0.0000000000000000e+00  1.1876271314576456e-02 3.3721011708921805e-02 0.0000000000000000e+00  2.1773702961716081e-02 1.9638342609650022e-01 0.0000000000000000e+00  -2.0338516494724953e-02 7.5340803284477809e-01 0.0000000000000000e+00  2.1362066032640924e-02 2.9767217201030655e-01 0.0000000000000000e+00  -4.3547727573540221e-04 6.5223837108354388e-01 0.0000000000000000e+00  -5.2561355110295144e-04 8.5614426870906413e-01 0.0000000000000000e+00  -1.5477956330763954e-04 6.0156733832430431e-01 0.0000000000000000e+00  2.0731850940117452e-02 3.9881654493208590e-01 0.0000000000000000e+00  -1.9628882175872792e-02 6.0172419761338414e-01 0.0000000000000000e+00  2.0015190130396762e-02 5.0005066018288535e-01 0.0000000000000000e+00  1.9106512909113596e-02 6.5207334740057910e-01 0.0000000000000000e+00  -1.8935388706671684e-02 5.0051733160645662e-01 0.0000000000000000e+00  -1.8245072418946941e-02 3.9921611416008967e-01 0.0000000000000000e+00  -1.7822762044774048e-02 2.9778608022467579e-01 0.0000000000000000e+00  1.2383092239307894e-03 1.4286172886143919e-01 0.0000000000000000e+00  -1.7983548466301239e-02 1.9584727417494013e-01 0.0000000000000000e+00  1.8919167330107164e-02 7.5360416251182805e-01 0.0000000000000000e+00  -7.6098458975230724e-04 9.2237389556448474e-02 0.0000000000000000e+00  1.7396032865566624e-02 9.0584916289975270e-01 0.0000000000000000e+00  -3.4200993282258811e-04 9.0703446729238646e-01 0.0000000000000000e+00  -6.3944955413979009e-04 7.0296634592580420e-01 0.0000000000000000e+00  -7.1275379825303084e-04 8.0490110068528997e-01 0.0000000000000000e+00  1.7661008582818541e-04 5.5092287250170191e-01 0.0000000000000000e+00  9.0470111301510308e-04 4.4964910604109604e-01 0.0000000000000000e+00  1.2540978140172039e-03 3.9900856967882303e-01 0.0000000000000000e+00  1.9250692143992132e-03 2.4680853913426146e-01 0.0000000000000000e+00  1.7935207024735484e-03 2.9763423624187824e-01 0.0000000000000000e+00  1.9593513566855403e-03 1.9575109529308429e-01 0.0000000000000000e+00  5.4118232702477973e-04 5.0028529227185947e-01 0.0000000000000000e+00  1.5598310965540191e-03 3.4834983292983945e-01 0.0000000000000000e+00  -7.7097509217693549e-04 7.5381303995107085e-01 0.0000000000000000e+00  </DataArray> 
</PointData> 
</Piece>
</UnstructuredGrid>
</VTKFile>