<?xml version="1.0"?>
<VTKFile type="UnstructuredGrid"  version="0.1"  >
<UnstructuredGrid>
<Piece  NumberOfPoints="25" NumberOfCells="32">
<Points>
<DataArray  type="Float64"  NumberOfComponents="3"  format="ascii">0 0 0  10 0 0  10 10 0  0 10 0  2.499999999995362 0 0  4.999999999992398 0 0  7.499999999996199 0 0  10 2.499999999995362 0  10 4.999999999992398 0  10 7.499999999996199 0  7.5 10 0  5 10 0  2.5 10 0  0 7.5 0  0 5 0  0 2.5 0  7.499999999992816 2.500000000000418 0  2.781669690924585 4.567383976639547 0  7.499999999998099 7.499999999998099 0  4.125559587897934 2.339845302186767 0  2.5 7.5 0  1.971687836487032 1.971687836487032 0  5.191206323699163 4.974282819602651 0  7.500000000002964 4.999999999997454 0  4.999999999998099 7.5 0  </DataArray>
</Points>
<Cells>
<DataArray  type="UInt32"  Name="connectivity"  format="ascii">17 19 21  15 17 21  4 19 21  1 6 7  7 16 23  16 22 23  6 7 16  18 22 23  17 22 24  18 22 24  17 19 22  7 8 23  5 6 16  5 16 19  8 9 23  16 19 22  2 9 18  0 15 21  2 10 18  10 11 18  11 18 24  9 18 23  14 17 20  4 5 19  17 20 24  14 15 17  3 12 20  3 13 20  13 14 20  12 20 24  11 12 24  0 4 21  </DataArray>
<DataArray  type="UInt32"  Name="offsets"  format="ascii">3 6 9 12 15 18 21 24 27 30 33 36 39 42 45 48 51 54 57 60 63 66 69 72 75 78 81 84 87 90 93 96 </DataArray>
<DataArray  type="UInt8"  Name="types"  format="ascii">5 5 5 5 5 5 5 5 5 5 5 5 5 5 5 5 5 5 5 5 5 5 5 5 5 5 5 5 5 5 5 5 </DataArray>
</Cells>
<CellData  Tensors="f_36"> 
<DataArray  type="Float64"  Name="f_36"  NumberOfComponents="9" format="ascii">5.2569604061558695e-02 1.2041505098969237e-02 0.0000000000000000e+00 1.2041505098969237e-02 3.1010149152124489e-01 0.0000000000000000e+00 0.0000000000000000e+00 0.0000000000000000e+00 0.0000000000000000e+00  1.6289726521826753e-03 6.4882397287965481e-03 0.0000000000000000e+00 6.4882397287965481e-03 2.9988538347210936e-01 0.0000000000000000e+00 0.0000000000000000e+00 0.0000000000000000e+00 0.0000000000000000e+00  3.1590255461610123e-02 2.7214419734943825e-02 0.0000000000000000e+00 2.7214419734943825e-02 2.7194251622455035e-01 0.0000000000000000e+00 0.0000000000000000e+00 0.0000000000000000e+00 0.0000000000000000e+00  1.2047658417783334e-01 -5.8864544764647649e-02 0.0000000000000000e+00 -5.8864544764647649e-02 3.1323911886236672e-01 0.0000000000000000e+00 0.0000000000000000e+00 0.0000000000000000e+00 0.0000000000000000e+00  2.8124354844023064e-02 -6.6450138407767121e-03 0.0000000000000000e+00 -6.6450138407767121e-03 3.0307747955498937e-01 0.0000000000000000e+00 0.0000000000000000e+00 0.0000000000000000e+00 0.0000000000000000e+00  1.5980261915376645e-02 -7.1026683420263590e-03 0.0000000000000000e+00 -7.1026683420263590e-03 2.9840667458243825e-01 0.0000000000000000e+00 0.0000000000000000e+00 0.0000000000000000e+00 0.0000000000000000e+00  1.5489723977151107e-02 -2.5975980373066355e-02 0.0000000000000000e+00 -2.5975980373066355e-02 2.7022743930140392e-01 0.0000000000000000e+00 0.0000000000000000e+00 0.0000000000000000e+00 0.0000000000000000e+00  1.9245780095402856e-02 1.0554678624694773e-02 0.0000000000000000e+00 1.0554678624694773e-02 3.0831592064621388e-01 0.0000000000000000e+00 0.0000000000000000e+00 0.0000000000000000e+00 0.0000000000000000e+00  1.9169970872027001e-02 -1.3695616263907640e-04 0.0000000000000000e+00 -1.3695616263907640e-04 3.0085210290074271e-01 0.0000000000000000e+00 0.0000000000000000e+00 0.0000000000000000e+00 0.0000000000000000e+00  5.0075757798794314e-02 3.7007275676455278e-03 0.0000000000000000e+00 3.7007275676455278e-03 3.1339400330619588e-01 0.0000000000000000e+00 0.0000000000000000e+00 0.0000000000000000e+00 0.0000000000000000e+00  1.5060758997688689e-02 6.0531711858073586e-03 0.0000000000000000e+00 6.0531711858073586e-03 2.9756821266984568e-01 0.0000000000000000e+00 0.0000000000000000e+00 0.0000000000000000e+00 0.0000000000000000e+00  1.1859175287635901e-02 -1.5250465943643808e-02 0.0000000000000000e+00 -1.5250465943643808e-02 2.8061812464850278e-01 0.0000000000000000e+00 0.0000000000000000e+00 0.0000000000000000e+00 0.0000000000000000e+00  1.1928847538307114e-01 -2.6926467408828435e-02 0.0000000000000000e+00 -2.6926467408828435e-02 3.1015003599598490e-01 0.0000000000000000e+00 0.0000000000000000e+00 0.0000000000000000e+00 0.0000000000000000e+00  3.5574793886764253e-02 -7.0539043232476385e-04 0.0000000000000000e+00 -7.0539043232476385e-04 2.7586887109802538e-01 0.0000000000000000e+00 0.0000000000000000e+00 0.0000000000000000e+00 0.0000000000000000e+00  7.6200619678039047e-03 4.2287713118251448e-03 0.0000000000000000e+00 4.2287713118251448e-03 2.6959643001665595e-01 0.0000000000000000e+00 0.0000000000000000e+00 0.0000000000000000e+00 0.0000000000000000e+00  4.8364065663424383e-02 2.0321768772551610e-03 0.0000000000000000e+00 2.0321768772551610e-03 3.1022888522658415e-01 0.0000000000000000e+00 0.0000000000000000e+00 0.0000000000000000e+00 0.0000000000000000e+00  1.8651578049871984e-02 4.2816535627208718e-02 0.0000000000000000e+00 4.2816535627208718e-02 3.0524148011980190e-01 0.0000000000000000e+00 0.0000000000000000e+00 0.0000000000000000e+00 0.0000000000000000e+00  3.7617935054965954e-02 5.0216771908693988e-02 0.0000000000000000e+00 5.0216771908693988e-02 3.0803071793733017e-01 0.0000000000000000e+00 0.0000000000000000e+00 0.0000000000000000e+00 0.0000000000000000e+00  1.1295931878643678e-01 2.4425315746875700e-02 0.0000000000000000e+00 2.4425315746875700e-02 2.9369422884473562e-01 0.0000000000000000e+00 0.0000000000000000e+00 0.0000000000000000e+00 0.0000000000000000e+00  1.1295931878643678e-01 2.4425315746875741e-02 0.0000000000000000e+00 2.4425315746875741e-02 2.9369422884473562e-01 0.0000000000000000e+00 0.0000000000000000e+00 0.0000000000000000e+00 0.0000000000000000e+00  3.4186508384265388e-02 2.1175192094797140e-03 0.0000000000000000e+00 2.1175192094797140e-03 2.7208195482842934e-01 0.0000000000000000e+00 0.0000000000000000e+00 0.0000000000000000e+00 0.0000000000000000e+00  1.9936186265528344e-02 -7.1714855241507142e-03 0.0000000000000000e+00 -7.1714855241507142e-03 3.0858146148078197e-01 0.0000000000000000e+00 0.0000000000000000e+00 0.0000000000000000e+00 0.0000000000000000e+00  7.8080179163403096e-03 -7.7085965383112669e-03 0.0000000000000000e+00 -7.7085965383112669e-03 2.9349821538344023e-01 0.0000000000000000e+00 0.0000000000000000e+00 0.0000000000000000e+00 0.0000000000000000e+00  1.1799647832972829e-01 8.0602791395752785e-03 0.0000000000000000e+00 8.0602791395752785e-03 3.0679084365729359e-01 0.0000000000000000e+00 0.0000000000000000e+00 0.0000000000000000e+00 0.0000000000000000e+00  4.5613049189774470e-02 -5.3081006464842833e-03 0.0000000000000000e+00 -5.3081006464842833e-03 3.0838114068955597e-01 0.0000000000000000e+00 0.0000000000000000e+00 0.0000000000000000e+00 0.0000000000000000e+00  3.7282726712843241e-03 8.7196195085064727e-03 0.0000000000000000e+00 8.7196195085064727e-03 2.6265397251554645e-01 0.0000000000000000e+00 0.0000000000000000e+00 0.0000000000000000e+00 0.0000000000000000e+00  1.1847026903945224e-01 -2.7378051728846262e-02 0.0000000000000000e+00 -2.7378051728846262e-02 3.0802269950257583e-01 0.0000000000000000e+00 0.0000000000000000e+00 0.0000000000000000e+00 0.0000000000000000e+00  3.1631411451426339e-02 -4.6432805043293397e-02 0.0000000000000000e+00 -4.6432805043293397e-02 3.0911516717558962e-01 0.0000000000000000e+00 0.0000000000000000e+00 0.0000000000000000e+00 0.0000000000000000e+00  1.3129669461592677e-02 -1.6717241302744105e-03 0.0000000000000000e+00 -1.6717241302744105e-03 2.6101063800202207e-01 0.0000000000000000e+00 0.0000000000000000e+00 0.0000000000000000e+00 0.0000000000000000e+00  3.2802429930082429e-02 -2.6105527354181882e-02 0.0000000000000000e+00 -2.6105527354181882e-02 2.7507353061435669e-01 0.0000000000000000e+00 0.0000000000000000e+00 0.0000000000000000e+00 0.0000000000000000e+00  1.1687961357112293e-01 -1.0187166182910161e-03 0.0000000000000000e+00 -1.0187166182910161e-03 3.0388699528491964e-01 0.0000000000000000e+00 0.0000000000000000e+00 0.0000000000000000e+00 0.0000000000000000e+00  1.1698621795279225e-01 3.3438609322526021e-02 0.0000000000000000e+00 3.3438609322526021e-02 3.0416416667725987e-01 0.0000000000000000e+00 0.0000000000000000e+00 0.0000000000000000e+00 0.0000000000000000e+00  </DataArray> 
</CellData> 
</Piece>
</UnstructuredGrid>
</VTKFile>