<?xml version="1.0"?>
<VTKFile type="UnstructuredGrid"  version="0.1"  >
<UnstructuredGrid>
<Piece  NumberOfPoints="172" NumberOfCells="280">
<Points>
<DataArray  type="Float64"  NumberOfComponents="3"  format="ascii">0 0 0  10 0 0  10 10 0  0 10 0  5 2.5 0  7.5 5 0  5 7.5 0  2.5 5 0  0.9090909090901605 0 0  1.818181818179173 0 0  2.727272727267429 0 0  3.636363636355684 0 0  4.545454545446256 0 0  5.454545454538547 0 0  6.363636363630837 0 0  7.272727272723128 0 0  8.181818181815419 0 0  9.090909090907711 0 0  10 0.9090909090901605 0  10 1.818181818179173 0  10 2.727272727267429 0  10 3.636363636355684 0  10 4.545454545446256 0  10 5.454545454538547 0  10 6.363636363630837 0  10 7.272727272723128 0  10 8.181818181815419 0  10 9.090909090907711 0  9.09090909090909 10 0  8.181818181818182 10 0  7.272727272727272 10 0  6.363636363636363 10 0  5.454545454545453 10 0  4.545454545454545 10 0  3.636363636363635 10 0  2.727272727272727 10 0  1.818181818181818 10 0  0.9090909090909101 10 0  0 9.09090909090909 0  0 8.181818181818182 0  0 7.272727272727272 0  0 6.363636363636363 0  0 5.454545454545453 0  0 4.545454545454545 0  0 3.636363636363635 0  0 2.727272727272727 0  0 1.818181818181818 0  0 0.9090909090909101 0  5.772542487823207 2.622358709874862 0  6.469463134246713 2.977457516616813 0  7.022542488724263 3.530536873104649 0  7.377641291364384 4.227457515990799 0  7.377641290151512 5.772542487742035 0  7.02254248349546 6.469463134092181 0  6.469463126557718 7.022542488969568 0  5.772542484048874 7.377641291351493 0  4.227457512144378 7.377641290114606 0  3.530536866221733 7.022542483723532 0  2.977457511218725 6.469463126816882 0  2.622358708742042 5.772542484336745 0  2.622358709911769 4.227457512063205 0  2.977457516388742 3.530536866067201 0  3.530536872845486 2.97745751146403 0  4.227457515702929 2.622358708729152 0  2.741005525671353 2.77210969738453 0  2.772109697154534 7.25899447431429 0  7.227890302910378 2.741005525996727 0  7.258994473989128 7.227890303140692 0  7.577139943688429 0.7051721847467525 0  0.7051721846211267 2.422860056452326 0  9.294827815417609 7.577139943962969 0  2.422860056178143 9.294827815542588 0  2.23910229000237 0.7486943519030642 0  9.251305648196169 2.239102290157133 0  0.7486943516994057 7.760897709900018 0  7.760897709745156 9.251305648400203 0  5.453165220669959 8.099670604579529 0  1.900329395357396 5.453165220840301 0  8.099670604713317 4.5468347792423 0  4.546834779071736 1.900329395225039 0  3.984528878796434 9.205160108641643 0  0.794839891539098 3.984528878907247 0  9.205160108574434 6.015471121279904 0  6.015471121169666 0.7948398916075201 0  7.764249859814406 6.662445639259939 0  6.662445639059102 2.235750140517859 0  3.337554361004396 7.764249860061692 0  2.235750140269997 3.337554361204667 0  2.064410661314942 6.225118674948027 0  3.774881324890901 2.064410661268036 0  6.225118674668824 7.935589338726105 0  7.935589338773235 3.774881325170147 0  7.460820675415283 2.030216351206002 0  2.03021635085724 2.539179324931159 0  7.969783648871237 7.460820676014511 0  2.539179324332837 7.96978364921952 0  6.064507131026173 8.729792910495798 0  1.270207089449539 6.064507131199298 0  8.729792910670104 3.935492868881993 0  3.935492868708826 1.270207089275506 0  2.58400075572412 1.978272510856802 0  8.021727489421071 2.584000756177782 0  1.978272510307361 7.415999243920512 0  7.415999243466731 8.021727489970994 0  1.851755261355979 1.583092797949174 0  8.416907202243458 1.851755261577622 0  1.583092797557051 8.148244738524413 0  8.148244738302823 8.416907202636272 0  4.645544598118359 8.142017571776119 0  8.142017571841514 5.354455401850172 0  1.857982428257928 4.645544598159562 0  5.354455401808488 1.857982428195779 0  8.617092836783742 6.895970010998703 0  6.895970010523398 1.382907163698406 0  3.104029989338046 8.61709283705742 0  1.382907163423302 3.104029989813193 0  1.064065716008324 5.258895715491168 0  5.258895715374645 8.935934283932513 0  4.741104284489345 1.06406571592189 0  8.935934284020899 4.741104284604925 0  3.196793077134532 1.589540799801618 0  8.410459200310596 3.196793077402785 0  1.589540799687331 6.803206922665191 0  6.803206922396908 8.410459200424944 0  9.239768003745457 1.369024996500755 0  1.369024996468683 0.7602319962791426 0  8.630975003479556 9.239768003795104 0  0.7602319962295867 8.630975003511631 0  8.533330491337953 0.8314702585061948 0  0.8314702584479314 1.466669508736651 0  9.168529741493314 8.533330491513526 0  1.466669508561477 9.168529741551476 0  8.322107403129987 6.104667327951109 0  3.895332672196467 8.32210740327135 0  6.104667327863199 1.677892597457462 0  1.677892597315263 3.895332672283323 0  6.824988942347092 0.5765838480105356 0  0.5765838479167054 3.175011057761825 0  9.423416152155156 6.824988942519109 0  3.175011057589797 9.423416152248329 0  6.802126730089374 9.214063516924483 0  0.7859364831261269 6.802126730232331 0  9.214063516865336 3.197873269790409 0  3.197873269647493 0.7859364831852064 0  5.965984744693404 9.398679012708691 0  0.6013209872690314 5.965984744755204 0  9.398679012773142 4.034015255268744 0  4.034015255207077 0.6013209872048872 0  9.334499265847279 0.6655007341521496 0  0.6655007341523862 0.665500734152587 0  9.334499265846711 9.334499265846336 0  0.6655007341535311 9.334499265846475 0  3.145386134509148 2.264952476016739 0  7.735047524179785 3.145386134808359 0  2.264952475918571 6.854613865334216 0  6.854613865035064 7.735047524278034 0  4.506260010236338 8.795861759867742 0  8.795861759866852 5.493739989832926 0  1.204138240257357 4.506260010352302 0  5.493739989718073 1.204138240260313 0  4.749936920881483 9.38739123048838 0  0.6126087695609557 4.749936920950143 0  9.387391230492439 5.250063079140512 0  5.250063079072377 0.6126087695579446 0  7.741157996063896 1.407859130936486 0  8.592140869073479 7.741157996907079 0  1.407859130743023 2.258842004277087 0  2.258842003436076 8.592140869266581 0  2.613904930772899 1.337107388739173 0  8.662892611407326 2.613904931021146 0  1.337107388475455 7.386095069048493 0  7.386095068800199 8.66289261167138 0  </DataArray>
</Points>
<Cells>
<DataArray  type="UInt32"  Name="connectivity"  format="ascii">82 112 132  83 113 134  80 114 133  81 115 135  52 84 132  56 86 133  48 85 134  60 87 135  72 104 125  73 105 124  74 106 127  75 107 126  82 112 138  83 113 136  80 114 139  81 115 137  77 110 116  79 111 118  76 108 117  78 109 119  32 117 160  42 116 161  22 119 162  12 118 163  32 117 144  42 116 145  22 119 146  12 118 147  105 124 128  104 125 129  107 126 130  106 127 131  105 128 164  104 129 166  107 130 165  106 131 167  56 108 133  52 109 132  60 110 135  48 111 134  62 63 89  58 59 88  50 51 91  54 55 90  48 49 85  52 53 84  60 61 87  56 57 86  7 77 110  6 76 108  4 79 111  5 78 109  69 115 137  68 113 136  71 114 139  70 112 138  111 118 159  109 119 157  110 116 158  108 117 156  69 129 166  68 128 164  71 131 167  70 130 165  72 104 168  73 105 169  74 106 170  75 107 171  69 115 166  68 113 164  71 114 167  70 112 165  62 89 152  50 91 153  58 88 154  54 90 155  96 123 140  98 121 142  97 122 141  99 120 143  96 140 144  98 142 146  97 141 145  99 143 147  19 73 124  9 72 125  29 75 126  39 74 127  33 34 80  43 44 81  23 24 82  13 14 83  19 20 73  9 10 72  15 16 68  45 46 69  29 30 75  39 40 74  25 26 70  35 36 71  18 19 124  8 9 125  28 29 126  38 39 127  72 143 168  73 142 169  74 141 170  75 140 171  16 17 128  46 47 129  26 27 130  36 37 131  57 58 65  53 54 67  61 62 64  49 50 66  14 83 136  44 81 137  24 82 138  34 80 139  6 56 108  7 60 110  5 52 109  4 48 111  67 94 103  65 95 102  66 92 101  64 93 100  7 59 77  6 55 76  4 63 79  5 51 78  16 68 128  46 69 129  26 70 130  36 71 131  15 68 136  45 69 137  25 70 138  35 71 139  61 64 87  49 66 85  57 65 86  53 67 84  63 79 89  59 77 88  51 78 91  55 76 90  20 73 142  10 72 143  30 75 140  40 74 141  89 99 120  91 98 121  88 97 122  90 96 123  79 99 118  78 98 119  77 97 116  76 96 117  86 95 114  84 94 112  87 93 115  85 92 113  96 117 144  98 119 146  97 116 145  99 118 147  95 102 106  94 103 107  93 100 104  92 101 105  65 86 95  67 84 94  64 87 93  66 85 92  79 89 99  78 91 98  77 88 97  76 90 96  100 120 152  101 121 153  102 122 154  103 123 155  89 120 152  91 121 153  88 122 154  90 123 155  120 143 168  121 142 169  122 141 170  123 140 171  83 134 159  81 135 158  82 132 157  80 133 156  1 18 148  1 17 148  0 8 149  0 47 149  2 27 150  2 28 150  3 38 151  3 37 151  22 23 162  32 33 160  12 13 163  42 43 161  58 65 154  54 67 155  62 64 152  50 66 153  100 104 168  101 105 169  102 106 170  103 107 171  94 112 165  95 114 167  92 113 164  93 115 166  14 15 136  44 45 137  24 25 138  34 35 139  84 112 132  86 114 133  85 113 134  87 115 135  30 31 140  40 41 141  20 21 142  10 11 143  31 140 144  41 141 145  21 142 146  11 143 147  111 134 159  109 132 157  110 135 158  108 133 156  17 128 148  47 129 149  27 130 150  37 131 151  33 80 160  43 81 161  23 82 162  13 83 163  18 124 148  8 125 149  28 126 150  38 127 151  31 32 144  41 42 145  21 22 146  11 12 147  124 128 148  125 129 149  126 130 150  127 131 151  100 120 168  101 121 169  102 122 170  103 123 171  64 100 152  66 101 153  65 102 154  67 103 155  94 107 165  92 105 164  95 106 167  93 104 166  81 158 161  80 156 160  83 159 163  82 157 162  117 156 160  116 158 161  119 157 162  118 159 163  </DataArray>
<DataArray  type="UInt32"  Name="offsets"  format="ascii">3 6 9 12 15 18 21 24 27 30 33 36 39 42 45 48 51 54 57 60 63 66 69 72 75 78 81 84 87 90 93 96 99 102 105 108 111 114 117 120 123 126 129 132 135 138 141 144 147 150 153 156 159 162 165 168 171 174 177 180 183 186 189 192 195 198 201 204 207 210 213 216 219 222 225 228 231 234 237 240 243 246 249 252 255 258 261 264 267 270 273 276 279 282 285 288 291 294 297 300 303 306 309 312 315 318 321 324 327 330 333 336 339 342 345 348 351 354 357 360 363 366 369 372 375 378 381 384 387 390 393 396 399 402 405 408 411 414 417 420 423 426 429 432 435 438 441 444 447 450 453 456 459 462 465 468 471 474 477 480 483 486 489 492 495 498 501 504 507 510 513 516 519 522 525 528 531 534 537 540 543 546 549 552 555 558 561 564 567 570 573 576 579 582 585 588 591 594 597 600 603 606 609 612 615 618 621 624 627 630 633 636 639 642 645 648 651 654 657 660 663 666 669 672 675 678 681 684 687 690 693 696 699 702 705 708 711 714 717 720 723 726 729 732 735 738 741 744 747 750 753 756 759 762 765 768 771 774 777 780 783 786 789 792 795 798 801 804 807 810 813 816 819 822 825 828 831 834 837 840 </DataArray>
<DataArray  type="UInt8"  Name="types"  format="ascii">5 5 5 5 5 5 5 5 5 5 5 5 5 5 5 5 5 5 5 5 5 5 5 5 5 5 5 5 5 5 5 5 5 5 5 5 5 5 5 5 5 5 5 5 5 5 5 5 5 5 5 5 5 5 5 5 5 5 5 5 5 5 5 5 5 5 5 5 5 5 5 5 5 5 5 5 5 5 5 5 5 5 5 5 5 5 5 5 5 5 5 5 5 5 5 5 5 5 5 5 5 5 5 5 5 5 5 5 5 5 5 5 5 5 5 5 5 5 5 5 5 5 5 5 5 5 5 5 5 5 5 5 5 5 5 5 5 5 5 5 5 5 5 5 5 5 5 5 5 5 5 5 5 5 5 5 5 5 5 5 5 5 5 5 5 5 5 5 5 5 5 5 5 5 5 5 5 5 5 5 5 5 5 5 5 5 5 5 5 5 5 5 5 5 5 5 5 5 5 5 5 5 5 5 5 5 5 5 5 5 5 5 5 5 5 5 5 5 5 5 5 5 5 5 5 5 5 5 5 5 5 5 5 5 5 5 5 5 5 5 5 5 5 5 5 5 5 5 5 5 5 5 5 5 5 5 5 5 5 5 5 5 5 5 5 5 5 5 5 5 5 5 5 5 5 5 5 5 5 5 </DataArray>
</Cells>
<PointData  Vectors="f_49"> 
<DataArray  type="Float64"  Name="f_49"  NumberOfComponents="3" format="ascii">-5.0000051118390620e-01 -5.0000051118344646e-01 0.0000000000000000e+00  5.0000051118306710e-01 -5.0000051118428512e-01 0.0000000000000000e+00  5.0000051118405542e-01 5.0000051118329703e-01 0.0000000000000000e+00  -5.0000051118367650e-01 5.0000051118367650e-01 0.0000000000000000e+00  -3.6597487168487805e-10 1.0040692224585861e+00 0.0000000000000000e+00  -1.0040692224549523e+00 -4.0887418168957938e-10 0.0000000000000000e+00  4.1751469392255953e-10 -1.0040692224369396e+00 0.0000000000000000e+00  1.0040692224405732e+00 3.7461651168966055e-10 0.0000000000000000e+00  1.3397561858351070e-01 -1.1339735738488048e+00 0.0000000000000000e+00  -3.5901963149843293e-02 -9.6410519342162737e-01 0.0000000000000000e+00  9.6322340158107554e-03 -1.0096056524646337e+00 0.0000000000000000e+00  -2.6269729133997057e-03 -9.9747219671983611e-01 0.0000000000000000e+00  8.7565763779922561e-04 -1.0005055606560318e+00 0.0000000000000000e+00  -8.7565763779885253e-04 -1.0005055606560316e+00 0.0000000000000000e+00  2.6269729133961855e-03 -9.9747219671983944e-01 0.0000000000000000e+00  -9.6322340157858847e-03 -1.0096056524646086e+00 0.0000000000000000e+00  3.5901963149747342e-02 -9.6410519342172307e-01 0.0000000000000000e+00  -1.3397561858320342e-01 -1.1339735738484975e+00 0.0000000000000000e+00  1.1339735738489067e+00 1.3397561858361223e-01 0.0000000000000000e+00  9.6410519342159984e-01 -3.5901963149870507e-02 0.0000000000000000e+00  1.0096056524646411e+00 9.6322340158180534e-03 0.0000000000000000e+00  9.9747219671983400e-01 -2.6269729134016824e-03 0.0000000000000000e+00  1.0005055606560322e+00 8.7565763779983406e-04 0.0000000000000000e+00  1.0005055606560320e+00 -8.7565763779931028e-04 0.0000000000000000e+00  9.9747219671983822e-01 2.6269729133974076e-03 0.0000000000000000e+00  1.0096056524646133e+00 -9.6322340157903152e-03 0.0000000000000000e+00  9.6410519342170642e-01 3.5901963149763842e-02 0.0000000000000000e+00  1.1339735738485590e+00 -1.3397561858326501e-01 0.0000000000000000e+00  -1.3397561858346851e-01 1.1339735738487624e+00 0.0000000000000000e+00  3.5901963149818333e-02 9.6410519342165180e-01 0.0000000000000000e+00  -9.6322340158049163e-03 1.0096056524646280e+00 0.0000000000000000e+00  2.6269729134013038e-03 9.9747219671983423e-01 0.0000000000000000e+00  -8.7565763780030731e-04 1.0005055606560331e+00 0.0000000000000000e+00  8.7565763779992394e-04 1.0005055606560322e+00 0.0000000000000000e+00  -2.6269729133993878e-03 9.9747219671983622e-01 0.0000000000000000e+00  9.6322340157976392e-03 1.0096056524646206e+00 0.0000000000000000e+00  -3.5901963149791140e-02 9.6410519342167922e-01 0.0000000000000000e+00  1.3397561858336704e-01 1.1339735738486607e+00 0.0000000000000000e+00  -1.1339735738486607e+00 -1.3397561858336701e-01 0.0000000000000000e+00  -9.6410519342167911e-01 3.5901963149791126e-02 0.0000000000000000e+00  -1.0096056524646206e+00 -9.6322340157976184e-03 0.0000000000000000e+00  -9.9747219671983622e-01 2.6269729133993271e-03 0.0000000000000000e+00  -1.0005055606560325e+00 -8.7565763779969886e-04 0.0000000000000000e+00  -1.0005055606560320e+00 8.7565763779946619e-04 0.0000000000000000e+00  -9.9747219671983745e-01 -2.6269729133981653e-03 0.0000000000000000e+00  -1.0096056524646164e+00 9.6322340157932018e-03 0.0000000000000000e+00  -9.6410519342169565e-01 -3.5901963149774625e-02 0.0000000000000000e+00  -1.1339735738485990e+00 1.3397561858330539e-01 0.0000000000000000e+00  -3.1027445401065518e-01 9.5492657660022584e-01 0.0000000000000000e+00  -5.9017708256147638e-01 8.1230906355755306e-01 0.0000000000000000e+00  -8.1230906544056003e-01 5.9017707994744395e-01 0.0000000000000000e+00  -9.5492657713291629e-01 3.1027445246239566e-01 0.0000000000000000e+00  -9.5492657663028824e-01 -3.1027445394104797e-01 0.0000000000000000e+00  -8.1230906352548793e-01 -5.9017708259480461e-01 0.0000000000000000e+00  -5.9017707994062174e-01 -8.1230906544113235e-01 0.0000000000000000e+00  -3.1027445239832968e-01 -9.5492657716964580e-01 0.0000000000000000e+00  3.1027445390408098e-01 -9.5492657665048453e-01 0.0000000000000000e+00  5.9017708254149681e-01 -8.1230906356356580e-01 0.0000000000000000e+00  8.1230906534064617e-01 -5.9017708007392244e-01 0.0000000000000000e+00  9.5492657714875129e-01 -3.1027445246878266e-01 0.0000000000000000e+00  9.5492657662042246e-01 3.1027445397368802e-01 0.0000000000000000e+00  8.1230906359563115e-01 5.9017708250816880e-01 0.0000000000000000e+00  5.9017708008074332e-01 8.1230906534007430e-01 0.0000000000000000e+00  3.1027445253284941e-01 9.5492657711202167e-01 0.0000000000000000e+00  0.0000000000000000e+00 0.0000000000000000e+00 0.0000000000000000e+00  0.0000000000000000e+00 0.0000000000000000e+00 0.0000000000000000e+00  0.0000000000000000e+00 0.0000000000000000e+00 0.0000000000000000e+00  0.0000000000000000e+00 0.0000000000000000e+00 0.0000000000000000e+00  0.0000000000000000e+00 0.0000000000000000e+00 0.0000000000000000e+00  0.0000000000000000e+00 0.0000000000000000e+00 0.0000000000000000e+00  0.0000000000000000e+00 0.0000000000000000e+00 0.0000000000000000e+00  0.0000000000000000e+00 0.0000000000000000e+00 0.0000000000000000e+00  0.0000000000000000e+00 0.0000000000000000e+00 0.0000000000000000e+00  0.0000000000000000e+00 0.0000000000000000e+00 0.0000000000000000e+00  0.0000000000000000e+00 0.0000000000000000e+00 0.0000000000000000e+00  0.0000000000000000e+00 0.0000000000000000e+00 0.0000000000000000e+00  0.0000000000000000e+00 0.0000000000000000e+00 0.0000000000000000e+00  0.0000000000000000e+00 0.0000000000000000e+00 0.0000000000000000e+00  0.0000000000000000e+00 0.0000000000000000e+00 0.0000000000000000e+00  0.0000000000000000e+00 0.0000000000000000e+00 0.0000000000000000e+00  0.0000000000000000e+00 0.0000000000000000e+00 0.0000000000000000e+00  0.0000000000000000e+00 0.0000000000000000e+00 0.0000000000000000e+00  0.0000000000000000e+00 0.0000000000000000e+00 0.0000000000000000e+00  0.0000000000000000e+00 0.0000000000000000e+00 0.0000000000000000e+00  0.0000000000000000e+00 0.0000000000000000e+00 0.0000000000000000e+00  0.0000000000000000e+00 0.0000000000000000e+00 0.0000000000000000e+00  0.0000000000000000e+00 0.0000000000000000e+00 0.0000000000000000e+00  0.0000000000000000e+00 0.0000000000000000e+00 0.0000000000000000e+00  0.0000000000000000e+00 0.0000000000000000e+00 0.0000000000000000e+00  0.0000000000000000e+00 0.0000000000000000e+00 0.0000000000000000e+00  0.0000000000000000e+00 0.0000000000000000e+00 0.0000000000000000e+00  0.0000000000000000e+00 0.0000000000000000e+00 0.0000000000000000e+00  0.0000000000000000e+00 0.0000000000000000e+00 0.0000000000000000e+00  0.0000000000000000e+00 0.0000000000000000e+00 0.0000000000000000e+00  0.0000000000000000e+00 0.0000000000000000e+00 0.0000000000000000e+00  0.0000000000000000e+00 0.0000000000000000e+00 0.0000000000000000e+00  0.0000000000000000e+00 0.0000000000000000e+00 0.0000000000000000e+00  0.0000000000000000e+00 0.0000000000000000e+00 0.0000000000000000e+00  0.0000000000000000e+00 0.0000000000000000e+00 0.0000000000000000e+00  0.0000000000000000e+00 0.0000000000000000e+00 0.0000000000000000e+00  0.0000000000000000e+00 0.0000000000000000e+00 0.0000000000000000e+00  0.0000000000000000e+00 0.0000000000000000e+00 0.0000000000000000e+00  0.0000000000000000e+00 0.0000000000000000e+00 0.0000000000000000e+00  0.0000000000000000e+00 0.0000000000000000e+00 0.0000000000000000e+00  0.0000000000000000e+00 0.0000000000000000e+00 0.0000000000000000e+00  0.0000000000000000e+00 0.0000000000000000e+00 0.0000000000000000e+00  0.0000000000000000e+00 0.0000000000000000e+00 0.0000000000000000e+00  0.0000000000000000e+00 0.0000000000000000e+00 0.0000000000000000e+00  0.0000000000000000e+00 0.0000000000000000e+00 0.0000000000000000e+00  0.0000000000000000e+00 0.0000000000000000e+00 0.0000000000000000e+00  0.0000000000000000e+00 0.0000000000000000e+00 0.0000000000000000e+00  0.0000000000000000e+00 0.0000000000000000e+00 0.0000000000000000e+00  0.0000000000000000e+00 0.0000000000000000e+00 0.0000000000000000e+00  0.0000000000000000e+00 0.0000000000000000e+00 0.0000000000000000e+00  0.0000000000000000e+00 0.0000000000000000e+00 0.0000000000000000e+00  0.0000000000000000e+00 0.0000000000000000e+00 0.0000000000000000e+00  0.0000000000000000e+00 0.0000000000000000e+00 0.0000000000000000e+00  0.0000000000000000e+00 0.0000000000000000e+00 0.0000000000000000e+00  0.0000000000000000e+00 0.0000000000000000e+00 0.0000000000000000e+00  0.0000000000000000e+00 0.0000000000000000e+00 0.0000000000000000e+00  0.0000000000000000e+00 0.0000000000000000e+00 0.0000000000000000e+00  0.0000000000000000e+00 0.0000000000000000e+00 0.0000000000000000e+00  0.0000000000000000e+00 0.0000000000000000e+00 0.0000000000000000e+00  0.0000000000000000e+00 0.0000000000000000e+00 0.0000000000000000e+00  0.0000000000000000e+00 0.0000000000000000e+00 0.0000000000000000e+00  0.0000000000000000e+00 0.0000000000000000e+00 0.0000000000000000e+00  0.0000000000000000e+00 0.0000000000000000e+00 0.0000000000000000e+00  0.0000000000000000e+00 0.0000000000000000e+00 0.0000000000000000e+00  0.0000000000000000e+00 0.0000000000000000e+00 0.0000000000000000e+00  0.0000000000000000e+00 0.0000000000000000e+00 0.0000000000000000e+00  0.0000000000000000e+00 0.0000000000000000e+00 0.0000000000000000e+00  0.0000000000000000e+00 0.0000000000000000e+00 0.0000000000000000e+00  0.0000000000000000e+00 0.0000000000000000e+00 0.0000000000000000e+00  0.0000000000000000e+00 0.0000000000000000e+00 0.0000000000000000e+00  0.0000000000000000e+00 0.0000000000000000e+00 0.0000000000000000e+00  0.0000000000000000e+00 0.0000000000000000e+00 0.0000000000000000e+00  0.0000000000000000e+00 0.0000000000000000e+00 0.0000000000000000e+00  0.0000000000000000e+00 0.0000000000000000e+00 0.0000000000000000e+00  0.0000000000000000e+00 0.0000000000000000e+00 0.0000000000000000e+00  0.0000000000000000e+00 0.0000000000000000e+00 0.0000000000000000e+00  0.0000000000000000e+00 0.0000000000000000e+00 0.0000000000000000e+00  0.0000000000000000e+00 0.0000000000000000e+00 0.0000000000000000e+00  0.0000000000000000e+00 0.0000000000000000e+00 0.0000000000000000e+00  0.0000000000000000e+00 0.0000000000000000e+00 0.0000000000000000e+00  0.0000000000000000e+00 0.0000000000000000e+00 0.0000000000000000e+00  0.0000000000000000e+00 0.0000000000000000e+00 0.0000000000000000e+00  0.0000000000000000e+00 0.0000000000000000e+00 0.0000000000000000e+00  0.0000000000000000e+00 0.0000000000000000e+00 0.0000000000000000e+00  0.0000000000000000e+00 0.0000000000000000e+00 0.0000000000000000e+00  0.0000000000000000e+00 0.0000000000000000e+00 0.0000000000000000e+00  0.0000000000000000e+00 0.0000000000000000e+00 0.0000000000000000e+00  0.0000000000000000e+00 0.0000000000000000e+00 0.0000000000000000e+00  0.0000000000000000e+00 0.0000000000000000e+00 0.0000000000000000e+00  0.0000000000000000e+00 0.0000000000000000e+00 0.0000000000000000e+00  0.0000000000000000e+00 0.0000000000000000e+00 0.0000000000000000e+00  0.0000000000000000e+00 0.0000000000000000e+00 0.0000000000000000e+00  0.0000000000000000e+00 0.0000000000000000e+00 0.0000000000000000e+00  0.0000000000000000e+00 0.0000000000000000e+00 0.0000000000000000e+00  0.0000000000000000e+00 0.0000000000000000e+00 0.0000000000000000e+00  0.0000000000000000e+00 0.0000000000000000e+00 0.0000000000000000e+00  0.0000000000000000e+00 0.0000000000000000e+00 0.0000000000000000e+00  0.0000000000000000e+00 0.0000000000000000e+00 0.0000000000000000e+00  0.0000000000000000e+00 0.0000000000000000e+00 0.0000000000000000e+00  0.0000000000000000e+00 0.0000000000000000e+00 0.0000000000000000e+00  0.0000000000000000e+00 0.0000000000000000e+00 0.0000000000000000e+00  0.0000000000000000e+00 0.0000000000000000e+00 0.0000000000000000e+00  0.0000000000000000e+00 0.0000000000000000e+00 0.0000000000000000e+00  0.0000000000000000e+00 0.0000000000000000e+00 0.0000000000000000e+00  0.0000000000000000e+00 0.0000000000000000e+00 0.0000000000000000e+00  0.0000000000000000e+00 0.0000000000000000e+00 0.0000000000000000e+00  0.0000000000000000e+00 0.0000000000000000e+00 0.0000000000000000e+00  0.0000000000000000e+00 0.0000000000000000e+00 0.0000000000000000e+00  </DataArray> 
</PointData> 
</Piece>
</UnstructuredGrid>
</VTKFile>